 LAMMPS data file

        6144  atoms
           4  atom types
        4096  bonds
           2  bond types
        2048  angles
           2  angle types

   0.00000000       46.585880000000003       xlo xhi
   0.00000000       46.585880000000003       ylo yhi
   0.00000000       46.585880000000003       zlo zhi

 Masses

 1 15.999
 2 1.008
 3 12.011
 4 1.008

 Atoms # full

           1           1           1 -0.819999993       21.110600000000002        45.176540000000003        1.8546399999999998     
           2           1           2  0.409999996       20.611550000000001        45.060839999999999       0.98573999999999984     
           3           1           2  0.409999996       21.624660000000002        44.369540000000001        1.8958400000000033     
           4           2           1 -0.819999993       37.717039999999997        3.7709400000000031        11.524240000000001     
           5           2           2  0.409999996       37.968740000000004        2.8898400000000031        11.201540000000001     
           6           2           2  0.409999996       38.379640000000002        3.8174400000000013        12.254540000000002     
           7           3           1 -0.819999993       6.0789400000000029        9.0905400000000007        31.223790000000001     
           8           3           2  0.409999996       7.0172400000000010        9.3074400000000015        31.062230000000000     
           9           3           2  0.409999996       5.7977400000000010        8.6278400000000008        30.422790000000003     
          10           4           1 -0.819999993       44.582239999999999        24.945100000000000        18.761580000000002     
          11           4           2  0.409999996       44.546639999999996        24.040961000000003        19.080010000000001     
          12           4           2  0.409999996       44.456140000000005        24.759780000000003        17.779990000000002     
          13           5           1 -0.819999993       19.789390000000001        39.587240000000001        40.815240000000003     
          14           5           2  0.409999996       20.155850000000001        40.483640000000001        40.781640000000003     
          15           5           2  0.409999996       20.474100000000000        38.914439999999999        40.964240000000004     
          16           6           1 -0.819999993       29.275350000000003        44.651940000000003        27.705180000000002     
          17           6           2  0.409999996       30.154260000000001        44.801040000000000        27.286160000000002     
          18           6           2  0.409999996       29.229330000000001        43.669240000000002        27.822770000000002     
          19           7           1 -0.819999993     -0.57245999999999952        38.229840000000003        20.415060000000000     
          20           7           2  0.409999996     -0.50765999999999778        39.023340000000005        20.969440000000002     
          21           7           2  0.409999996      -1.5463600000000000        38.068140000000000        20.242240000000002     
          22           8           1 -0.819999993       38.068040000000003        35.388440000000003        29.788360000000001     
          23           8           2  0.409999996       37.343240000000002        35.452939999999998        29.106960000000001     
          24           8           2  0.409999996       38.692740000000001        36.130740000000003        29.692930000000000     
          25           9           1 -0.819999993       7.6797400000000007        20.118030000000001        24.135869000000003     
          26           9           2  0.409999996       8.4782400000000013        20.331020000000002        23.609722000000001     
          27           9           2  0.409999996       7.9333400000000012        19.230280000000000        24.406720000000000     
          28          10           1 -0.819999993       11.078940000000001        8.8978400000000022        17.630790000000001     
          29          10           2  0.409999996       10.299240000000001        9.3085400000000007        17.146200000000000     
          30          10           2  0.409999996       11.020240000000001        8.0255400000000012        17.274880000000003     
          31          11           1 -0.819999993       25.722150000000003        18.782360000000001        26.958970000000001     
          32          11           2  0.409999996       26.007520000000003        19.737470000000002        27.167760000000001     
          33          11           2  0.409999996       26.082140000000003        18.253630000000001        27.697240000000001     
          34          12           1 -0.819999993       43.829340000000002        25.578290000000003        5.8688400000000023     
          35          12           2  0.409999996       44.474440000000001        26.223210000000002        5.6502400000000002     
          36          12           2  0.409999996       43.689340000000001        25.139120000000002        4.9962400000000002     
          37          13           1 -0.819999993       18.000450000000001        36.580340000000000        8.1797400000000007     
          38          13           2  0.409999996       18.916910000000001        36.217939999999999        8.0108400000000017     
          39          13           2  0.409999996       18.240650000000002        37.438040000000001        8.5981400000000008     
          40          14           1 -0.819999993       1.1605400000000010        23.336909200000001        7.7203400000000020     
          41          14           2  0.409999996      0.30014000000000252        22.939503000000002        7.4648400000000024     
          42          14           2  0.409999996      0.88504000000000005        23.808727000000001        8.5370400000000011     
          43          15           1 -0.819999993       5.6732399999999998        23.745090000000001        45.410139999999998     
          44          15           2  0.409999996       5.4176400000000022        24.420800000000000        46.096840000000000     
          45          15           2  0.409999996       4.8401400000000017        23.383871100000000        45.038539999999998     
          46          16           1 -0.819999993       1.1675400000000025        29.596460000000000        27.380530000000000     
          47          16           2  0.409999996       1.4083400000000026        28.836020000000001        26.788670000000003     
          48          16           2  0.409999996       1.6495400000000018        30.405470000000001        27.108260000000001     
          49          17           1 -0.819999993       29.535970000000002        29.430770000000003        6.9816400000000023     
          50          17           2  0.409999996       29.488430000000001        28.703640000000000        7.6228400000000018     
          51          17           2  0.409999996       28.583910000000003        29.702180000000002        7.0246400000000015     
          52          18           1 -0.819999993       39.031440000000003        39.817140000000002        29.541180000000001     
          53          18           2  0.409999996       38.359540000000003        39.684939999999997        30.249770000000002     
          54          18           2  0.409999996       38.710340000000002        40.433740000000000        28.863910000000001     
          55          19           1 -0.819999993       31.639680000000002        4.5406399999999998        7.0954400000000000     
          56          19           2  0.409999996       32.037019999999998        5.3970400000000005        7.1065400000000025     
          57          19           2  0.409999996       32.228230000000003        3.9471400000000010        6.5944400000000023     
          58          20           1 -0.819999993       24.092540000000003        38.425640000000001        22.108810000000002     
          59          20           2  0.409999996       24.862050000000000        39.029340000000005        22.217950000000002     
          60          20           2  0.409999996       23.463328000000001        38.911540000000002        21.561210000000003     
          61          21           1 -0.819999993       35.847740000000002        16.606810000000003        18.391520000000000     
          62          21           2  0.409999996       36.680840000000003        17.033220000000000        18.479870000000002     
          63          21           2  0.409999996       35.667839999999998        16.365500000000001        19.319000000000003     
          64          22           1 -0.819999993       20.257340000000003        19.639980000000001        25.494600000000002     
          65          22           2  0.409999996       20.397400000000001        20.585670000000000        25.349630000000001     
          66          22           2  0.409999996       19.910560000000000        19.449240000000003        26.370710000000003     
          67          23           1 -0.819999993       10.978440000000001        16.080890000000004       0.58504000000000289     
          68          23           2  0.409999996       10.942040000000002        16.045130000000000      -0.38105999999999796     
          69          23           2  0.409999996       10.090740000000002        16.418310000000002       0.72584000000000160     
          70          24           1 -0.819999993       1.8133400000000002        2.5034400000000012        43.774439999999998     
          71          24           2  0.409999996       2.3257400000000032        2.1521400000000028        43.020240000000001     
          72          24           2  0.409999996       2.5379400000000025        2.6540400000000020        44.376739999999998     
          73          25           1 -0.819999993       12.283240000000001        6.5706400000000009        12.693840000000002     
          74          25           2  0.409999996       11.812140000000001        6.2567400000000006        13.484940000000002     
          75          25           2  0.409999996       12.379040000000002        5.8258400000000030        12.083840000000002     
          76          26           1 -0.819999993       45.036540000000002        16.808669999999999        31.589960000000001     
          77          26           2  0.409999996       44.110439999999997        16.860140000000001        31.720640000000003     
          78          26           2  0.409999996       45.399439999999998        16.536760000000001        32.504400000000004     
          79          27           1 -0.819999993       5.9859400000000029        33.010140000000000        15.135290000000001     
          80          27           2  0.409999996       6.4916400000000003        32.705370000000002        14.329750000000001     
          81          27           2  0.409999996       6.5885400000000018        33.678040000000003        15.439960000000003     
          82          28           1 -0.819999993       22.141410000000000        9.7307400000000008        33.492139999999999     
          83          28           2  0.409999996       21.264850000000003        9.4366400000000024        33.227499999999999     
          84          28           2  0.409999996       22.035490000000003        10.075240000000001        34.380940000000002     
          85          29           1 -0.819999993       22.371082000000001        13.343240000000002        27.423760000000001     
          86          29           2  0.409999996       22.108390000000000        14.222310000000002        27.072350000000000     
          87          29           2  0.409999996       21.772040000000001        13.212840000000002        28.114490000000004     
          88          30           1 -0.819999993       4.7251400000000032        27.575580000000002        30.692670000000000     
          89          30           2  0.409999996       4.6712400000000009        27.007520000000003        29.867480000000000     
          90          30           2  0.409999996       5.6495400000000018        27.400940000000002        30.942510000000002     
          91          31           1 -0.819999993       27.203580000000002        46.958939999999998        33.653040000000004     
          92          31           2  0.409999996       26.565990000000003        46.335940000000001        33.952440000000003     
          93          31           2  0.409999996       28.075610000000001        46.524839999999998        33.861339999999998     
          94          32           1 -0.819999993       25.416750000000000        21.617520000000003        2.8781400000000019     
          95          32           2  0.409999996       25.155960000000000        22.385496000000000        2.4252400000000023     
          96          32           2  0.409999996       25.743400000000001        21.005680000000002        2.1756400000000014     
          97          33           1 -0.819999993       6.0751400000000011        9.6364400000000021        43.839340000000000     
          98          33           2  0.409999996       6.2958400000000019        10.572540000000002        44.007140000000007     
          99          33           2  0.409999996       6.7786400000000029        9.3769400000000012        43.242240000000002     
         100          34           1 -0.819999993       4.5198400000000021        19.640740000000001        24.762720000000002     
         101          34           2  0.409999996       5.2539400000000001        20.298380000000002        24.845630000000000     
         102          34           2  0.409999996       4.7945400000000014        18.815060000000003        25.185450000000003     
         103          35           1 -0.819999993       32.366979999999998        35.951140000000002        31.009070000000001     
         104          35           2  0.409999996       33.036120000000004        36.281440000000003        30.409739999999999     
         105          35           2  0.409999996       32.101640000000003        35.114440000000002        30.650380000000002     
         106          36           1 -0.819999993       11.056040000000001        13.741630000000001        27.999290000000002     
         107          36           2  0.409999996       10.612940000000002        13.192340000000002        28.660080000000001     
         108          36           2  0.409999996       11.543840000000001        14.351940000000001        28.537370000000003     
         109          37           1 -0.819999993       22.484823000000002        34.924140000000001        5.3317399999999999     
         110          37           2  0.409999996       21.695550000000001        34.819040000000001        5.8574400000000004     
         111          37           2  0.409999996       22.939699000000001        34.101640000000003        5.5333400000000026     
         112          38           1 -0.819999993       17.771950000000000        24.091540000000002        30.712830000000000     
         113          38           2  0.409999996       17.177580000000003        23.561799000000001        30.176490000000001     
         114          38           2  0.409999996       18.563720000000004        23.579400000000003        30.962310000000002     
         115          39           1 -0.819999993       41.235939999999999        33.994439999999997        11.463240000000001     
         116          39           2  0.409999996       41.304440000000000        33.274480000000004        10.887240000000002     
         117          39           2  0.409999996       40.786140000000003        33.667640000000006        12.219840000000001     
         118          40           1 -0.819999993       17.095300000000002        18.193600000000004        35.643740000000001     
         119          40           2  0.409999996       17.001090000000001        17.740670000000001        34.771540000000002     
         120          40           2  0.409999996       16.533680000000000        18.967120000000001        35.420040000000000     
         121          41           1 -0.819999993       5.9900400000000005        46.113140000000001        26.570010000000003     
         122          41           2  0.409999996       5.2981400000000001        45.706940000000003        26.015470000000001     
         123          41           2  0.409999996       5.5734400000000015        46.202840000000002        27.425080000000001     
         124          42           1 -0.819999993       33.590339999999998        34.205040000000004        33.051590000000004     
         125          42           2  0.409999996       33.250889999999998        34.688240000000000        32.310380000000002     
         126          42           2  0.409999996       34.585940000000001        34.236640000000001        33.059609999999999     
         127          43           1 -0.819999993       12.184440000000002        26.170890000000000        37.209740000000004     
         128          43           2  0.409999996       11.478140000000002        25.527540000000002        37.515240000000006     
         129          43           2  0.409999996       11.816540000000002        27.017430000000001        37.624940000000002     
         130          44           1 -0.819999993       23.975363000000002        42.733240000000002        10.749540000000001     
         131          44           2  0.409999996       23.660102000000002        42.709140000000005        11.640840000000001     
         132          44           2  0.409999996       24.923640000000002        42.725040000000000        10.682440000000001     
         133          45           1 -0.819999993       21.223170000000003        27.133120000000002        44.632040000000003     
         134          45           2  0.409999996       21.173710000000000        26.286840000000002        44.078040000000001     
         135          45           2  0.409999996       20.498550000000002        27.728840000000002        44.365040000000000     
         136          46           1 -0.819999993       23.288025870000002        4.5829400000000007        2.8055400000000006     
         137          46           2  0.409999996       23.929078000000001        3.8797400000000017        2.8892400000000009     
         138          46           2  0.409999996       22.456551000000001        4.2614400000000003        2.5073400000000028     
         139          47           1 -0.819999993       32.696939999999998        26.605800000000002        9.2251400000000015     
         140          47           2  0.409999996       33.637140000000002        26.622890000000002        8.9716400000000007     
         141          47           2  0.409999996       32.646470000000001        26.860000000000003        10.122940000000002     
         142          48           1 -0.819999993       35.230339999999998        21.041030000000003        24.650880000000001     
         143          48           2  0.409999996       34.620339999999999        21.469130000000000        23.947314000000002     
         144          48           2  0.409999996       35.000340000000001        20.132030000000000        24.603110000000001     
         145          49           1 -0.819999993       7.1413400000000031        32.720210000000002        28.245630000000002     
         146          49           2  0.409999996       7.5198400000000021        31.923950000000001        27.858250000000002     
         147          49           2  0.409999996       6.5864400000000032        33.015349999999998        27.525330000000000     
         148          50           1 -0.819999993       44.711440000000003        21.658320000000003        31.506570000000004     
         149          50           2  0.409999996       45.442340000000002        21.910380000000000        30.934990000000003     
         150          50           2  0.409999996       44.015640000000005        21.502960000000002        30.857490000000002     
         151          51           1 -0.819999993       6.4804400000000015        3.8165399999999998        16.781530000000004     
         152          51           2  0.409999996       5.7351400000000012        4.3571400000000011        16.617840000000001     
         153          51           2  0.409999996       6.2296399999999998        2.9975400000000008        17.237660000000002     
         154          52           1 -0.819999993       6.0644400000000012        13.906980000000001        6.1789400000000008     
         155          52           2  0.409999996       5.2940400000000025        13.520960000000002        6.4984400000000022     
         156          52           2  0.409999996       5.7654400000000017        14.607950000000001        5.5721400000000010     
         157          53           1 -0.819999993       36.845440000000004        40.825140000000005        42.031340000000000     
         158          53           2  0.409999996       36.693240000000003        40.474640000000001        41.106040000000000     
         159          53           2  0.409999996       36.054839999999999        40.442140000000002        42.514240000000001     
         160          54           1 -0.819999993       11.808340000000001        9.1134400000000007        22.475549000000001     
         161          54           2  0.409999996       11.432040000000001        8.4637400000000014        21.882120000000000     
         162          54           2  0.409999996       11.147040000000002        9.7663400000000014        22.734038000000002     
         163          55           1 -0.819999993       17.744170000000000        26.540820000000000        29.577670000000001     
         164          55           2  0.409999996       17.819760000000002        25.606660000000002        29.892260000000000     
         165          55           2  0.409999996       16.934430000000003        26.522560000000002        29.087520000000001     
         166          56           1 -0.819999993       34.325140000000005        29.414930000000002        40.217240000000004     
         167          56           2  0.409999996       35.092039999999997        29.888020000000001        39.903040000000004     
         168          56           2  0.409999996       33.660640000000001        30.036900000000003        40.386040000000001     
         169          57           1 -0.819999993       6.6534399999999998        26.079540000000001        4.6772400000000012     
         170          57           2  0.409999996       5.7646400000000000        26.015300000000003        5.0664400000000001     
         171          57           2  0.409999996       6.6693400000000018        25.178540000000002        4.2467400000000026     
         172          58           1 -0.819999993       2.3871400000000023        45.837440000000001      -0.92965999999999838     
         173          58           2  0.409999996       2.0866400000000027        46.747839999999997      -0.87035999999999802     
         174          58           2  0.409999996       2.9523400000000031        45.790239999999997       -1.6675599999999982     
         175          59           1 -0.819999993       7.2280400000000000        34.736339999999998        10.235740000000002     
         176          59           2  0.409999996       6.3563400000000030        34.278140000000000        10.438440000000002     
         177          59           2  0.409999996       7.0586400000000005        34.829440000000005        9.2502400000000016     
         178          60           1 -0.819999993       38.150440000000003        32.467250000000000        32.943920000000006     
         179          60           2  0.409999996       38.366740000000000        32.924540000000000        32.079570000000004     
         180          60           2  0.409999996       38.213840000000005        31.489229999999999        32.934220000000003     
         181          61           1 -0.819999993       30.766530000000003        24.558580000000003        2.5545400000000029     
         182          61           2  0.409999996       31.376650000000001        23.870250000000002        2.4787400000000019     
         183          61           2  0.409999996       30.670320000000000        25.122460000000000        1.7793400000000013     
         184          62           1 -0.819999993       16.802400000000002        34.427440000000004        9.8910400000000021     
         185          62           2  0.409999996       17.151700000000002        35.094639999999998        9.2487400000000015     
         186          62           2  0.409999996       17.456470000000003        33.806040000000003        10.131040000000002     
         187          63           1 -0.819999993       19.495330000000003        17.892310000000002        27.354559999999999     
         188          63           2  0.409999996       18.804880000000001        17.439920000000001        26.816170000000000     
         189          63           2  0.409999996       19.070010000000003        17.907750000000000        28.212790000000002     
         190          64           1 -0.819999993       45.771240000000006        8.8565400000000007        37.820940000000000     
         191          64           2  0.409999996       44.820040000000006        9.1108400000000014        37.737639999999999     
         192          64           2  0.409999996       46.080640000000002        9.3175400000000010        38.663740000000004     
         193          65           1 -0.819999993       17.810820000000000        43.634340000000002        43.758340000000004     
         194          65           2  0.409999996       18.154700000000002        43.888240000000003        42.877139999999997     
         195          65           2  0.409999996       17.263980000000004        44.404740000000004        44.015240000000006     
         196          66           1 -0.819999993       27.365010000000002        36.286239999999999        26.121310000000001     
         197          66           2  0.409999996       26.814760000000000        36.751139999999999        26.760310000000000     
         198          66           2  0.409999996       26.974410000000002        36.516739999999999        25.262640000000001     
         199          67           1 -0.819999993       2.5225400000000029        21.693720000000003        17.376080000000002     
         200          67           2  0.409999996       1.7226400000000019        21.402480000000001        17.820600000000002     
         201          67           2  0.409999996       2.6684400000000004        22.530242000000001        17.754510000000003     
         202          68           1 -0.819999993      0.99934000000000012        43.436540000000001        18.702630000000003     
         203          68           2  0.409999996       4.5840000000001879E-002   43.463340000000002        18.816650000000003     
         204          68           2  0.409999996       1.1369400000000027        42.506140000000002        18.416440000000001     
         205          69           1 -0.819999993       8.4111400000000014        15.498880000000002        42.103940000000001     
         206          69           2  0.409999996       9.2010400000000008        15.146560000000001        41.739940000000004     
         207          69           2  0.409999996       8.2055400000000009        15.176670000000001        42.990639999999999     
         208          70           1 -0.819999993       29.104640000000003        4.2998400000000032        40.479140000000001     
         209          70           2  0.409999996       29.566930000000003        3.7017400000000009        41.051340000000003     
         210          70           2  0.409999996       29.734170000000002        4.4524400000000028        39.723039999999997     
         211          71           1 -0.819999993       22.818349000000001        5.0632400000000004        28.020710000000001     
         212          71           2  0.409999996       23.035982000000001        4.2026400000000024        27.667540000000002     
         213          71           2  0.409999996       22.025830000000003        5.4539400000000029        27.667430000000003     
         214          72           1 -0.819999993     -0.13865999999999801        10.461440000000001        8.0428400000000018     
         215          72           2  0.409999996     -0.33615999999999957        11.144440000000001        8.6228400000000018     
         216          72           2  0.409999996     -0.94266000000000005        9.9011400000000016        7.9787400000000019     
         217          73           1 -0.819999993       28.462180000000004        25.084780000000002        7.8731400000000011     
         218          73           2  0.409999996       28.706370000000000        25.992880000000000        8.1137400000000017     
         219          73           2  0.409999996       28.690340000000003        24.974740000000001        6.9468400000000017     
         220          74           1 -0.819999993       26.069630000000000        6.1810400000000030       -7.9559999999997189E-002
         221          74           2  0.409999996       25.642750000000003        6.6139400000000030       0.68554000000000315     
         222          74           2  0.409999996       26.519980000000000        5.3332400000000000       0.17504000000000275     
         223          75           1 -0.819999993       18.161630000000002        34.397739999999999        28.336930000000002     
         224          75           2  0.409999996       17.605170000000001        33.635739999999998        28.285970000000002     