 LAMMPS data file

        2394  atoms
           4  atom types
        1824  bonds
           2  bond types
        2280  angles
           2  angle types

   0.00000000       18.582630000000002       xlo xhi
   0.00000000       18.582630000000002       ylo yhi
   0.00000000       59.464410000000001       zlo zhi

 Masses

 1 15.999
 2 1.008
 3 12.011
 4 1.008

 Atoms # full

           1           1           3 -0.239999995       11.717255000000002        12.295985000000002        31.567475000000002     
           2           1           4   5.99999987E-02   12.591415000000001        12.145365000000002        32.164365000000004     
           3           1           4   5.99999987E-02   11.048735000000001        12.959635000000000        32.092655000000001     
           4           1           4   5.99999987E-02   12.049705000000001        12.693805000000001        30.623123000000000     
           5           1           4   5.99999987E-02   11.237515000000000        11.291925000000001        31.236445000000000     
           6           2           3 -0.239999995       4.2288450000000006        8.0599450000000008        13.832905000000000     
           7           2           4   5.99999987E-02   3.6486150000000013        8.3088770000000007        12.945705000000000     
           8           2           4   5.99999987E-02   3.9994650000000007        8.6227410000000013        14.726705000000001     
           9           2           4   5.99999987E-02   4.1429050000000007        6.9893650000000012        14.038705000000000     
          10           2           4   5.99999987E-02   5.2582250000000013        8.2301650000000013        13.598905000000002     
          11           3           3 -0.239999995       5.3467150000000014        3.9214250000000010        38.732185000000001     
          12           3           4   5.99999987E-02   4.6535150000000005        4.3166250000000010        39.454904999999997     
          13           3           4   5.99999987E-02   5.8829450000000012        4.7734050000000012        38.294955000000002     
          14           3           4   5.99999987E-02   6.0971450000000011        3.4564550000000009        39.301504999999999     
          15           3           4   5.99999987E-02   5.0097850000000008        3.1183250000000005        38.084344999999999     
          16           4           3 -0.239999995       8.5032910000000008        6.9137050000000011        50.244304999999997     
          17           4           4   5.99999987E-02   8.2281050000000011        5.9396050000000002        50.508004999999997     
          18           4           4   5.99999987E-02   9.3225386000000015        6.8822750000000008        49.531905000000002     
          19           4           4   5.99999987E-02   7.6599350000000008        7.3605350000000005        49.677005000000001     
          20           4           4   5.99999987E-02   8.8282680000000013        7.5198150000000012        51.038004999999998     
          21           5           3 -0.239999995       10.040046000000000       0.65002500000000119        24.501045000000001     
          22           5           4   5.99999987E-02   9.1059020000000004       0.20062500000000050        24.864425000000001     
          23           5           4   5.99999987E-02   10.958555000000000        9.5925000000001148E-002   24.768435000000000     
          24           5           4   5.99999987E-02   9.9375230000000006       0.78589500000000001        23.413544999999999     
          25           5           4   5.99999987E-02   10.034458000000001        1.7139850000000010        24.906645000000001     
          26           6           3 -0.239999995       12.477415000000001        1.5494450000000013        18.972605000000001     
          27           6           4   5.99999987E-02   13.028845000000000       0.66532500000000105        18.626905000000001     
          28           6           4   5.99999987E-02   11.607665000000001        1.0421950000000013        19.463605000000001     
          29           6           4   5.99999987E-02   13.029185000000002        2.2466150000000011        19.622205000000001     
          30           6           4   5.99999987E-02   11.954555000000001        2.1524350000000005        18.162205000000000     
          31           7           3 -0.239999995       18.958114999999999        1.7060950000000012        21.049464999999998     
          32           7           4   5.99999987E-02   18.910345000000000        1.9822750000000005        22.069395000000000     
          33           7           4   5.99999987E-02   18.609864999999999       0.72525500000000065        20.760185000000000     
          34           7           4   5.99999987E-02   18.310085000000001        2.4030150000000008        20.625035000000000     
          35           7           4   5.99999987E-02   19.904615000000000        1.9188850000000013        20.525855000000000     
          36           8           3 -0.239999995       8.1665750000000017        5.4895150000000008        45.840005000000005     
          37           8           4   5.99999987E-02   8.7219430000000013        6.1451850000000015        45.006005000000002     
          38           8           4   5.99999987E-02   7.9785250000000012        4.3784650000000012        45.586804999999998     
          39           8           4   5.99999987E-02   8.8559930000000016        5.5002750000000002        46.642904999999999     
          40           8           4   5.99999987E-02   7.2794650000000010        6.1443950000000012        46.111805000000004     
          41           9           3 -0.239999995       18.943505000000002        7.0172250000000007        43.178505000000001     
          42           9           4   5.99999987E-02   19.704615000000000        6.1852150000000012        43.123004999999999     
          43           9           4   5.99999987E-02   19.224004999999998        7.7160150000000005        42.397205000000000     
          44           9           4   5.99999987E-02   18.009865000000001        6.5638250000000014        42.982405000000000     
          45           9           4   5.99999987E-02   19.036165000000000        7.5102250000000010        44.121904999999998     
          46          10           3 -0.239999995       15.483345000000000        6.5305550000000014        33.520074999999999     
          47          10           4   5.99999987E-02   15.977685000000001        5.9796050000000012        32.775354999999998     
          48          10           4   5.99999987E-02   14.455725000000001        6.2586950000000012        33.555675000000001     
          49          10           4   5.99999987E-02   15.937475000000001        6.3223750000000010        34.476635000000002     
          50          10           4   5.99999987E-02   15.485925000000002        7.5932350000000008        33.347974999999998     
          51          11           3 -0.239999995       10.631005000000002        1.7274450000000012        42.526605000000004     
          52          11           4   5.99999987E-02   10.452695000000000        2.5567650000000013        43.238505000000004     
          53          11           4   5.99999987E-02   9.7173740000000013        1.5635050000000010        42.026404999999997     
          54          11           4   5.99999987E-02   11.398405000000000        2.1708250000000007        41.848205000000000     
          55          11           4   5.99999987E-02   11.021515000000001       0.83848500000000037        42.905304999999998     
          56          12           3 -0.239999995       3.6262350000000012        6.3283850000000008        45.434105000000002     
          57          12           4   5.99999987E-02   2.8199150000000008        5.6388050000000014        45.733305000000001     
          58          12           4   5.99999987E-02   4.4968150000000007        5.9222150000000013        44.882604999999998     
          59          12           4   5.99999987E-02   2.9619650000000011        6.8190750000000007        44.728004999999996     
          60          12           4   5.99999987E-02   3.7199750000000007        6.8521250000000009        46.358505000000001     
          61          13           3 -0.239999995       19.718515000000000        12.471675000000001        48.217005000000000     
          62          13           4   5.99999987E-02   20.328415000000000        11.657425000000000        47.973505000000003     
          63          13           4   5.99999987E-02   19.158855000000003        12.033955000000001        48.980305000000001     
          64          13           4   5.99999987E-02   20.303215000000002        13.311595000000001        48.633605000000003     
          65          13           4   5.99999987E-02   19.066365000000001        12.721155000000001        47.448904999999996     
          66          14           3 -0.239999995       7.7858550000000006        1.6396050000000013        13.988205000000001     
          67          14           4   5.99999987E-02   8.7552240000000001        1.1195950000000003        13.904005000000000     
          68          14           4   5.99999987E-02   6.9691650000000003        1.1010650000000002        13.349305000000001     
          69          14           4   5.99999987E-02   7.6008550000000010        1.5815150000000004        15.147205000000000     
          70          14           4   5.99999987E-02   7.8692950000000010        2.7078450000000007        13.743205000000000     
          71          15           3 -0.239999995       13.532105000000001        3.5575650000000012        13.009505000000001     
          72          15           4   5.99999987E-02   12.560905000000002        3.1969750000000010        13.364004999999999     
          73          15           4   5.99999987E-02   14.252065000000002        3.4713150000000006        13.844205000000001     
          74          15           4   5.99999987E-02   13.996685000000001        3.0103150000000012        12.168505000000000     
          75          15           4   5.99999987E-02   13.402415000000001        4.6149350000000009        12.850805000000001     
          76          16           3 -0.239999995       20.619215000000001        2.2872850000000007        39.209135000000003     
          77          16           4   5.99999987E-02   19.992815000000000        2.5234550000000011        40.090604999999996     
          78          16           4   5.99999987E-02   21.592514999999999        2.7240850000000005        39.308795000000003     
          79          16           4   5.99999987E-02   20.457615000000001        1.1881550000000001        39.115004999999996     
          80          16           4   5.99999987E-02   20.205715000000001        2.7022250000000012        38.272694999999999     
          81          17           3 -0.239999995       9.7067140000000016       0.82207500000000167        33.251845000000003     
          82          17           4   5.99999987E-02   8.6438290000000002       0.74231500000000139        33.678145000000001     
          83          17           4   5.99999987E-02   10.364605000000001       0.99426500000000040        34.028845000000004     
          84          17           4   5.99999987E-02   10.009306000000000       -8.0304999999999183E-002   32.743974999999999     
          85          17           4   5.99999987E-02   9.6367970000000014        1.6725550000000009        32.597954999999999     
          86          18           3 -0.239999995       11.928065000000000        17.003145000000000        17.878205000000001     
          87          18           4   5.99999987E-02   10.950825000000002        17.257365000000000        18.301105000000000     
          88          18           4   5.99999987E-02   12.676705000000002        16.886595000000000        18.610205000000001     
          89          18           4   5.99999987E-02   11.683095000000002        15.972915000000000        17.359605000000002     
          90          18           4   5.99999987E-02   12.380195000000001        17.654855000000001        17.191904999999998     
          91          19           3 -0.239999995       9.3326013000000003        10.863875000000000        17.009405000000001     
          92          19           4   5.99999987E-02   10.260225000000000        11.502695000000001        17.103304999999999     
          93          19           4   5.99999987E-02   8.5017250000000004        11.580955000000001        17.150105000000000     
          94          19           4   5.99999987E-02   9.3037969000000000        10.508595000000001        16.018705000000001     
          95          19           4   5.99999987E-02   9.3899200000000000        10.001052000000001        17.738105000000001     
          96          20           3 -0.239999995       15.497325000000000        10.717255000000002        32.740335000000002     
          97          20           4   5.99999987E-02   14.532275000000002        11.035195000000002        32.313295000000004     
          98          20           4   5.99999987E-02   15.968045000000000        10.068553000000001        31.928195000000002     
          99          20           4   5.99999987E-02   16.142305000000000        11.570245000000000        32.980055000000000     
         100          20           4   5.99999987E-02   15.251595000000002        10.142884000000000        33.566965000000003     
         101          21           3 -0.239999995      -3.7404999999999688E-002   15.850915000000001        21.832675000000002     
         102          21           4   5.99999987E-02 -0.19193499999999908        16.734375000000000        22.446335000000001     
         103          21           4   5.99999987E-02 -0.25894499999999887        16.076635000000000        20.791834999999999     
         104          21           4   5.99999987E-02  0.89520500000000069        15.334695000000000        21.862285000000000     
         105          21           4   5.99999987E-02 -0.91148499999999899        15.255285000000001        22.139855000000001     
         106          22           3 -0.239999995       15.018825000000000        13.128875000000001        5.0375049999999995     
         107          22           4   5.99999987E-02   15.055015000000001        12.866305000000001        4.0081050000000005     
         108          22           4   5.99999987E-02   15.545085000000000        12.421515000000001        5.6970050000000008     
         109          22           4   5.99999987E-02   15.471845000000002        14.075995000000001        5.2196050000000014     
         110          22           4   5.99999987E-02   14.033145000000001        12.996975000000001        5.3514049999999997     
         111          23           3 -0.239999995       5.0489950000000006       -3.5383849999999999        42.898205000000004     
         112          23           4   5.99999987E-02   4.1072950000000006       -3.8455849999999998        43.223905000000002     
         113          23           4   5.99999987E-02   5.0833750000000011       -2.5760849999999991        42.429105000000000     
         114          23           4   5.99999987E-02   5.6815450000000007       -3.3542849999999991        43.810005000000004     
         115          23           4   5.99999987E-02   5.4394350000000014       -4.3490849999999988        42.314104999999998     
         116          24           3 -0.239999995       14.194695000000001        15.193145000000001        24.208805000000002     
         117          24           4   5.99999987E-02   14.440825000000000        16.018685000000001        23.547875000000001     
         118          24           4   5.99999987E-02   13.249955000000000        14.762915000000000        23.963795000000001     
         119          24           4   5.99999987E-02   15.083455000000001        14.587655000000002        23.973445000000002     
         120          24           4   5.99999987E-02   14.160645000000001        15.560625000000002        25.243385000000000     
         121          25           3 -0.239999995       21.724315000000001       0.62733500000000042        49.143505000000005     
         122          25           4   5.99999987E-02   20.883315000000003       0.97789500000000018        48.588705000000004     
         123          25           4   5.99999987E-02   21.618315000000003       0.82279500000000105        50.190804999999997     
         124          25           4   5.99999987E-02   21.633915000000002      -0.44517499999999899        49.028104999999996     
         125          25           4   5.99999987E-02   22.668415000000003       0.84528500000000051        48.717205000000000     
         126          26           3 -0.239999995       2.1636650000000008        5.2124450000000007        14.654705000000000     
         127          26           4   5.99999987E-02   1.6715050000000007        4.7524450000000007        15.518205000000000     
         128          26           4   5.99999987E-02   2.9915050000000010        5.8750750000000007        15.001005000000001     
         129          26           4   5.99999987E-02   2.5388150000000005        4.4674450000000006        13.969205000000001     
         130          26           4   5.99999987E-02   1.3895750000000007        5.7753650000000007        14.111505000000001     
         131          27           3 -0.239999995       13.926705000000002        5.2074450000000008        36.495795000000001     
         132          27           4   5.99999987E-02   14.932155000000002        5.2707350000000011        36.817125000000004     
         133          27           4   5.99999987E-02   13.313645000000001        4.9048850000000010        37.382655000000000     
         134          27           4   5.99999987E-02   13.700825000000002        6.2108150000000011        36.095424999999999     
         135          27           4   5.99999987E-02   13.943145000000001        4.5266450000000011        35.627915000000002     
         136          28           3 -0.239999995       10.417315000000000        12.957415000000001        34.968045000000004     
         137          28           4   5.99999987E-02   11.184835000000001        13.105125000000001        35.713295000000002     
         138          28           4   5.99999987E-02   9.3907306000000013        12.884135000000001        35.344974999999998     
         139          28           4   5.99999987E-02   10.358075000000001        13.749895000000002        34.300145000000001     
         140          28           4   5.99999987E-02   10.590405000000001        12.061205000000001        34.386715000000002     
         141          29           3 -0.239999995       7.1229050000000012        2.5965650000000009        28.751073000000002     
         142          29           4   5.99999987E-02   6.3604350000000007        2.5031150000000011        28.039695000000002     
         143          29           4   5.99999987E-02   7.7981050000000014        3.2512850000000011        28.312435000000001     
         144          29           4   5.99999987E-02   6.6456750000000007        3.1099250000000005        29.573074000000002     
         145          29           4   5.99999987E-02   7.5577850000000009        1.6148350000000011        29.054819000000002     
         146          30           3 -0.239999995       11.970105000000000        9.5241870000000013        20.969664999999999     
         147          30           4   5.99999987E-02   12.141505000000000        8.9492290000000008        21.874515000000002     
         148          30           4   5.99999987E-02   12.336795000000000        10.535855000000002        21.055815000000003     
         149          30           4   5.99999987E-02   12.497725000000001        9.2263889000000017        20.052285000000001     
         150          30           4   5.99999987E-02   10.846155000000001        9.6550180000000001        20.747405000000001     
         151          31           3 -0.239999995       8.0273750000000010        15.427005000000001        36.284055000000002     
         152          31           4   5.99999987E-02   8.8077190000000005        15.753615000000000        35.585974999999998     
         153          31           4   5.99999987E-02   7.2424450000000009        15.045295000000001        35.643374999999999     
         154          31           4   5.99999987E-02   8.3432150000000007        14.678565000000001        37.004365000000000     
         155          31           4   5.99999987E-02   7.5797850000000011        16.275555000000001        36.794764999999998     
         156          32           3 -0.239999995       11.395465000000002        1.7383050000000013        15.267005000000001     
         157          32           4   5.99999987E-02   10.988385000000001       0.93187500000000156        15.928105000000000     
         158          32           4   5.99999987E-02   11.275285000000000        2.6924050000000008        15.695005000000000     
         159          32           4   5.99999987E-02   12.405605000000001        1.6163450000000008        14.996905000000000     
         160          32           4   5.99999987E-02   10.840865000000001        1.8455750000000011        14.268005000000000     
         161          33           3 -0.239999995       1.7273150000000008        2.7301550000000008        45.979604999999999     
         162          33           4   5.99999987E-02   1.0888650000000002        3.2896350000000005        46.678105000000002     
         163          33           4   5.99999987E-02   1.2691750000000006        2.8900850000000009        45.064504999999997     
         164          33           4   5.99999987E-02   2.7151950000000005        3.2408250000000010        45.850004999999996     
         165          33           4   5.99999987E-02   1.7792450000000013        1.6945050000000013        46.320005000000002     
         166          34           3 -0.239999995       12.428595000000001        5.6613750000000014        21.488945000000001     
         167          34           4   5.99999987E-02   11.428815000000000        6.0244150000000012        21.321815000000001     
         168          34           4   5.99999987E-02   12.422645000000001        5.2328550000000007        22.437114999999999     
         169          34           4   5.99999987E-02   12.799975000000000        4.9636750000000012        20.735305000000000     
         170          34           4   5.99999987E-02   13.092315000000001        6.5476850000000013        21.534645000000001     
         171          35           3 -0.239999995       6.5372650000000014        10.658545000000000        29.117006000000000     
         172          35           4   5.99999987E-02   5.6701950000000014        10.925325000000001        28.480995000000000     
         173          35           4   5.99999987E-02   6.4974450000000008        9.5763290000000012        29.147926999999999     
         174          35           4   5.99999987E-02   7.5189050000000011        10.943575000000001        28.732303000000002     
         175          35           4   5.99999987E-02   6.2410950000000014        11.152415000000001        30.009803999999999     
         176          36           3 -0.239999995       10.819995000000000        13.366625000000001        15.114205000000000     
         177          36           4   5.99999987E-02   10.003102000000000        13.843825000000001        14.675805000000000     
         178          36           4   5.99999987E-02   10.686085000000000        13.492185000000001        16.178905000000000     
         179          36           4   5.99999987E-02   10.591475000000001        12.300685000000001        14.958305000000001     
         180          36           4   5.99999987E-02   11.778675000000000        13.678365000000001        14.773005000000001     
         181          37           3 -0.239999995      -1.8694849999999992        10.220144000000001        13.259205000000001     
         182          37           4   5.99999987E-02  -1.8097849999999998        9.4144970000000008        14.101505000000001     
         183          37           4   5.99999987E-02  -2.3024849999999990        11.120705000000001        13.617605000000001     
         184          37           4   5.99999987E-02 -0.86648499999999906        10.330905000000001        12.860005000000001     
         185          37           4   5.99999987E-02  -2.6207849999999997        9.9978130000000007        12.490205000000000     
         186          38           3 -0.239999995       8.9820370000000000        3.9298050000000009        40.190404999999998     
         187          38           4   5.99999987E-02   8.7422440000000012        3.5412550000000005        41.217705000000002     
         188          38           4   5.99999987E-02   9.9632920000000009        3.5359950000000007        39.813504999999999     
         189          38           4   5.99999987E-02   8.1850750000000012        3.6503650000000007        39.584294999999997     
         190          38           4   5.99999987E-02   8.9933280000000018        5.0549750000000007        40.202204999999999     
         191          39           3 -0.239999995       8.1235250000000008        10.468865000000001        20.394955000000003     
         192          39           4   5.99999987E-02   7.1161750000000010        10.442535000000001        19.959895000000003     
         193          39           4   5.99999987E-02   8.8258370000000017        9.7785710000000012        19.931415000000001     
         194          39           4   5.99999987E-02   8.4851010000000002        11.509785000000001        20.648654999999998     
         195          39           4   5.99999987E-02   7.9502350000000011        10.050187000000001        21.422114999999998     
         196          40           3 -0.239999995       12.305285000000001        9.1418870000000005        41.173905000000005     
         197          40           4   5.99999987E-02   12.880305000000000        8.4959290000000003        40.486604999999997     
         198          40           4   5.99999987E-02   12.633205000000000        8.8803190000000001        42.171405000000000     
         199          40           4   5.99999987E-02   12.442485000000001        10.119381000000001        40.857304999999997     
         200          40           4   5.99999987E-02   11.199085000000000        8.9425310000000007        41.058104999999998     
         201          41           3 -0.239999995       10.489015000000000        17.375985000000000        8.2144049999999993     
         202          41           4   5.99999987E-02   11.281675000000000        16.731555000000000        7.8803049999999999     
         203          41           4   5.99999987E-02   9.4729680000000016        17.081585000000000        7.8090049999999991     
         204          41           4   5.99999987E-02   10.457545000000001        17.367425000000001        9.2806050000000013     
         205          41           4   5.99999987E-02   10.534045000000001        18.397894999999998        8.0566050000000011     
         206          42           3 -0.239999995       15.586905000000002        16.513755000000000        47.637605000000001     
         207          42           4   5.99999987E-02   15.407045000000000        15.645975000000000        47.147104999999996     
         208          42           4   5.99999987E-02   14.635195000000001        16.924005000000001        47.953904999999999     
         209          42           4   5.99999987E-02   16.114305000000002        16.183805000000000        48.512005000000002     
         210          42           4   5.99999987E-02   16.198895000000000        17.293785000000000        47.115904999999998     
         211          43           3 -0.239999995       3.7255150000000006        15.034235000000001        49.164304999999999     
         212          43           4   5.99999987E-02   3.4173050000000007        14.661365000000000        50.134505000000004     
         213          43           4   5.99999987E-02   4.6904650000000006        15.517445000000002        49.203604999999996     
         214          43           4   5.99999987E-02   3.6493050000000009        14.134845000000002        48.506405000000001     
         215          43           4   5.99999987E-02   2.8683350000000010        15.674605000000000        48.849204999999998     
         216          44           3 -0.239999995       5.7145850000000014        8.3247370000000007        48.470105000000004     
         217          44           4   5.99999987E-02   5.5343150000000012        7.4197050000000004        48.984004999999996     
         218          44           4   5.99999987E-02   6.6735250000000015        8.2086450000000006        47.857905000000002     
         219          44           4   5.99999987E-02   4.8297050000000006        8.3830660000000012        47.792204999999996     
         220          44           4   5.99999987E-02   5.8181650000000005        9.0596120000000013        49.317205000000001     
         221          45           3 -0.239999995       18.306854999999999        13.331625000000001        41.939005000000002     
         222          45           4   5.99999987E-02   19.041765000000002        13.734405000000001        41.207104999999999     
         223          45           4   5.99999987E-02   18.746625000000002        12.877975000000001        42.796705000000003     
         224          45           4   5.99999987E-02   17.628575000000001        14.164655000000000        42.149304999999998     